============================== echo of input deck ==============================
echo

scratch_dir /scratch

start 2-aminothiazole

title "2-aminothiazole"

memory 7500 mb noverify

geometry units angstrom noautosym nocenter noautoz
  load 2-aminothiazole-008_centered.xyz
end

basis "ao basis" spherical print
* library 6-311G** except S
# Sapporo QZP-2012
S    S
     49255.9631430     0.0006800
      7388.9204160     0.0052530
      1681.4976890     0.0268610
       475.5224800     0.1032520
       154.5384660     0.2835640
        55.0038640     0.4652200
        20.1402720     0.2630450
S    S
       123.6208100    -0.0406070
        37.6255430    -0.2015760
         5.1666710     1.0950220
S    S
        10.5277750     1.0000000
S    S
         2.4606370    -0.3939990
         0.4722360     1.2003800
S    S
         1.9496400     1.0000000
S    S
         0.9502380     1.0000000
S    S
         0.2170800     1.0000000
S    S
         0.0976410     1.0000000
S    P
       776.1571850     0.0062130
       183.8172060     0.0508130
        58.8732130     0.2450540
        21.8800280     0.7810320
S    P
         8.7733780     1.0000000
S    P
         3.6234440     0.7450630
         1.4683500     0.3031660
S    P
         0.8585350     1.0000000
S    P
         0.3604890     1.0000000
S    P
         0.1552030     1.0000000
S    P
         0.0661850     1.0000000
S    D
        16.3140290     0.0095780
         3.6104810     0.0623900
         0.3807370     0.9879770
S    D
        14.0349420     1.0000000
S    D
         4.6004710     1.0000000
S    D
         0.9151520     1.0000000
S    D
         0.1482330     1.0000000
S    F
        12.8859250     0.5560390
         4.9388610     0.5594310
S    F
         0.8398700     1.0000000
S    F
         0.3181540     1.0000000
S    G
         0.8764110     0.5890959
         0.3676200     0.5269469

end

charge 1

dft
  xc pbe0
  odft
  mult 2
  print "final vectors analysis"
  maxiter 500
  mulliken
  direct
  max_ovl
  #vectors input 2-aminothiazole.movecs swap beta 1 26 output 2-aminothiazole-swap.movecs
  vectors input 2-aminothiazole-swap.movecs
  noscf
end

set movecs:tanalyze 1.e-99

task dft

#tddft
#  notriplet
#  cis
#  nroots 26
##  ecut -77.0
#end
#
#task tddft
#
================================================================================

 Output coordinates in angstroms (scale by  1.889725989 to convert to a.u.)

  No.       Tag          Charge          X              Y              Z
 ---- ---------------- ---------- -------------- -------------- --------------
    1 S                   16.0000     0.00000000     0.00000000     0.00000000
    2 N                    7.0000    -0.24304000     2.59727000     0.00016000
    3 N                    7.0000    -2.30977000     1.47179000     0.00084000
    4 C                    6.0000    -0.94758000     1.50012000     0.00016000
    5 C                    6.0000     1.45081000     0.98600000    -0.00019000
    6 C                    6.0000     1.10440000     2.29999000    -0.00003000
    7 H                    1.0000     2.43187000     0.53359000    -0.00063000
    8 H                    1.0000     1.81522000     3.11926000    -0.00010000
    9 H                    1.0000    -2.83208000     0.61273000    -0.00118000
   10 H                    1.0000    -2.80279000     2.35107000    -0.00115000

         Total DFT energy =     -533.417218229869

                    DFT Final Alpha Molecular Orbital Analysis
                    ------------------------------------------

 Vector    1  Occ=1.000000D+00  E=-9.638097D+01

 Vector  119  Occ=0.000000D+00  E= 2.303178D+00

 Vector  120  Occ=0.000000D+00  E= 2.165311D+00

 Vector  121  Occ=0.000000D+00  E= 2.326300D+00

 Vector  122  Occ=0.000000D+00  E= 2.224449D+00

 Vector  123  Occ=0.000000D+00  E= 2.766199D+00

 Vector  124  Occ=0.000000D+00  E= 2.180711D+00

 Vector  125  Occ=0.000000D+00  E= 2.267108D+00

 Vector  126  Occ=0.000000D+00  E= 2.391105D+00

 Vector  127  Occ=0.000000D+00  E= 2.492738D+00

 Vector  128  Occ=0.000000D+00  E= 2.692836D+00

 Vector  129  Occ=0.000000D+00  E= 2.423343D+00

 Vector  130  Occ=0.000000D+00  E= 2.467454D+00

 Vector  131  Occ=0.000000D+00  E= 2.451694D+00

 Vector  132  Occ=0.000000D+00  E= 2.533698D+00

 Vector  133  Occ=0.000000D+00  E= 2.822714D+00

 Vector  134  Occ=0.000000D+00  E= 2.532990D+00

 Vector  135  Occ=0.000000D+00  E= 2.573588D+00

 Vector  136  Occ=0.000000D+00  E= 2.666235D+00

 Vector  137  Occ=0.000000D+00  E= 2.575477D+00

 Vector  138  Occ=0.000000D+00  E= 2.629457D+00

 Vector  139  Occ=0.000000D+00  E= 2.741297D+00

 Vector  140  Occ=0.000000D+00  E= 2.547475D+00

 Vector  141  Occ=0.000000D+00  E= 3.098863D+00

 Vector  142  Occ=0.000000D+00  E= 2.802418D+00

 Vector  143  Occ=0.000000D+00  E= 2.851901D+00

 Vector  144  Occ=0.000000D+00  E= 2.794073D+00

 Vector  145  Occ=0.000000D+00  E= 3.136925D+00

 Vector  146  Occ=0.000000D+00  E= 3.295194D+00

 Vector  147  Occ=0.000000D+00  E= 3.038959D+00

 Vector  148  Occ=0.000000D+00  E= 2.971497D+00

 Vector  149  Occ=0.000000D+00  E= 3.219275D+00

 Vector  150  Occ=0.000000D+00  E= 3.126770D+00

 Vector  151  Occ=0.000000D+00  E= 3.257384D+00

 Vector  152  Occ=0.000000D+00  E= 3.511988D+00

 Vector  153  Occ=0.000000D+00  E= 3.350142D+00

 Vector  154  Occ=0.000000D+00  E= 3.702954D+00

 Vector  155  Occ=0.000000D+00  E= 3.472409D+00

 Vector  156  Occ=0.000000D+00  E= 3.608926D+00

 Vector  157  Occ=0.000000D+00  E= 3.877241D+00

 Vector  158  Occ=0.000000D+00  E= 3.579792D+00

 Vector  159  Occ=0.000000D+00  E= 3.970539D+00

 Vector  160  Occ=0.000000D+00  E= 4.205790D+00

 Vector  161  Occ=0.000000D+00  E= 7.650782D+00

 Vector  162  Occ=0.000000D+00  E= 4.536806D+00

 Vector  163  Occ=0.000000D+00  E= 4.834492D+00

 Vector  164  Occ=0.000000D+00  E= 5.012093D+00

 Vector  165  Occ=0.000000D+00  E= 4.596800D+00

 Vector  166  Occ=0.000000D+00  E= 1.023815D+01

 Vector  167  Occ=0.000000D+00  E= 7.884678D+00

 Vector  168  Occ=0.000000D+00  E= 4.863006D+01

 Vector  169  Occ=0.000000D+00  E= 1.980653D+00

 Vector  170  Occ=0.000000D+00  E= 7.659386D+00

 Vector  171  Occ=0.000000D+00  E= 7.715944D+00

 Vector  172  Occ=0.000000D+00  E= 7.735231D+00

 Vector  173  Occ=0.000000D+00  E= 3.433854D+01

 Vector  174  Occ=0.000000D+00  E= 9.884489D+00

 Vector  175  Occ=0.000000D+00  E= 1.020567D+01

 Vector  176  Occ=0.000000D+00  E= 4.860903D+01

 Vector  177  Occ=0.000000D+00  E= 1.201446D+01

 Vector  178  Occ=0.000000D+00  E= 2.372566D+01

 Vector  179  Occ=0.000000D+00  E= 2.390575D+01

 Vector  180  Occ=0.000000D+00  E= 2.414990D+01

 Vector  181  Occ=0.000000D+00  E= 2.374719D+01

 Vector  182  Occ=0.000000D+00  E= 2.376446D+01

 Vector  183  Occ=0.000000D+00  E= 2.377171D+01

 Vector  184  Occ=0.000000D+00  E= 2.377277D+01

 Vector  185  Occ=0.000000D+00  E= 2.379928D+01

 Vector  186  Occ=0.000000D+00  E= 2.383019D+01

 Vector  187  Occ=0.000000D+00  E= 2.384560D+01

 Vector  188  Occ=0.000000D+00  E= 3.550183D+01

 Vector  189  Occ=0.000000D+00  E= 3.560288D+01

 Vector  190  Occ=0.000000D+00  E= 3.421406D+01

 Vector  191  Occ=0.000000D+00  E= 3.421900D+01

 Vector  192  Occ=0.000000D+00  E= 3.425457D+01

 Vector  193  Occ=0.000000D+00  E= 3.424694D+01

 Vector  194  Occ=0.000000D+00  E= 3.141699D-01

 Vector  195  Occ=0.000000D+00  E= 4.832036D+01

 Vector  196  Occ=0.000000D+00  E= 2.250842D-01

 Vector  197  Occ=0.000000D+00  E= 2.934224D+00

 Vector  198  Occ=0.000000D+00  E= 7.066966D+01

     Multipole analysis of the density
     ---------------------------------

     L   x y z        total         alpha         beta         nuclear
     -   - - -        -----         -----         ----         -------
     0   0 0 0      1.000000    -26.000000    -25.000000     52.000000

     1   1 0 0     -0.691096      8.735498      8.736828    -18.163423
     1   0 1 0      1.576801    -59.466755    -59.552577    120.596133
     1   0 0 1     -0.002541     -0.004651     -0.004656      0.006765

     2   2 0 0    -11.295113   -162.983370   -163.203933    314.892190
     2   1 1 0     -0.813848     25.098527     25.102086    -51.014461
     2   1 0 1      0.012003      0.026986      0.027029     -0.042012
     2   0 2 0    -21.579141   -241.604024   -241.986456    462.011339
     2   0 1 1     -0.006924     -0.016645     -0.016670      0.026391

 Total times  cpu:        1.9s     wall:        4.5s
