============================== echo of input deck ==============================
echo

scratch_dir /scratch

start 2-aminothiazole

title "2-aminothiazole"

memory 7500 mb noverify

geometry units angstrom noautosym nocenter noautoz
  load 2-aminothiazole-008_centered.xyz
end

basis "ao basis" spherical print
* library 6-311G** except S
# Sapporo QZP-2012
S    S
     49255.9631430     0.0006800
      7388.9204160     0.0052530
      1681.4976890     0.0268610
       475.5224800     0.1032520
       154.5384660     0.2835640
        55.0038640     0.4652200
        20.1402720     0.2630450
S    S
       123.6208100    -0.0406070
        37.6255430    -0.2015760
         5.1666710     1.0950220
S    S
        10.5277750     1.0000000
S    S
         2.4606370    -0.3939990
         0.4722360     1.2003800
S    S
         1.9496400     1.0000000
S    S
         0.9502380     1.0000000
S    S
         0.2170800     1.0000000
S    S
         0.0976410     1.0000000
S    P
       776.1571850     0.0062130
       183.8172060     0.0508130
        58.8732130     0.2450540
        21.8800280     0.7810320
S    P
         8.7733780     1.0000000
S    P
         3.6234440     0.7450630
         1.4683500     0.3031660
S    P
         0.8585350     1.0000000
S    P
         0.3604890     1.0000000
S    P
         0.1552030     1.0000000
S    P
         0.0661850     1.0000000
S    D
        16.3140290     0.0095780
         3.6104810     0.0623900
         0.3807370     0.9879770
S    D
        14.0349420     1.0000000
S    D
         4.6004710     1.0000000
S    D
         0.9151520     1.0000000
S    D
         0.1482330     1.0000000
S    F
        12.8859250     0.5560390
         4.9388610     0.5594310
S    F
         0.8398700     1.0000000
S    F
         0.3181540     1.0000000
S    G
         0.8764110     0.5890959
         0.3676200     0.5269469
end

charge 0

dft
  xc pbe0
  mult 1
  odft
  print "final vectors analysis"
  maxiter 500
  mulliken
  direct
end
task dft

================================================================================

 Output coordinates in angstroms (scale by  1.889725989 to convert to a.u.)

  No.       Tag          Charge          X              Y              Z
 ---- ---------------- ---------- -------------- -------------- --------------
    1 S                   16.0000     0.00000000     0.00000000     0.00000000
    2 N                    7.0000    -0.24304000     2.59727000     0.00016000
    3 N                    7.0000    -2.30977000     1.47179000     0.00084000
    4 C                    6.0000    -0.94758000     1.50012000     0.00016000
    5 C                    6.0000     1.45081000     0.98600000    -0.00019000
    6 C                    6.0000     1.10440000     2.29999000    -0.00003000
    7 H                    1.0000     2.43187000     0.53359000    -0.00063000
    8 H                    1.0000     1.81522000     3.11926000    -0.00010000
    9 H                    1.0000    -2.83208000     0.61273000    -0.00118000
   10 H                    1.0000    -2.80279000     2.35107000    -0.00115000

         Total DFT energy =     -624.089940734759

                    DFT Final Alpha Molecular Orbital Analysis
                    ------------------------------------------

 Vector    1  Occ=1.000000D+00  E=-8.904339D+01

 Vector  119  Occ=0.000000D+00  E= 2.406880D+00

 Vector  120  Occ=0.000000D+00  E= 2.416546D+00

 Vector  121  Occ=0.000000D+00  E= 2.453272D+00

 Vector  122  Occ=0.000000D+00  E= 2.466465D+00

 Vector  123  Occ=0.000000D+00  E= 2.498300D+00

 Vector  124  Occ=0.000000D+00  E= 2.515040D+00

 Vector  125  Occ=0.000000D+00  E= 2.547768D+00

 Vector  126  Occ=0.000000D+00  E= 2.567401D+00

 Vector  127  Occ=0.000000D+00  E= 2.599326D+00

 Vector  128  Occ=0.000000D+00  E= 2.633446D+00

 Vector  129  Occ=0.000000D+00  E= 2.658580D+00

 Vector  130  Occ=0.000000D+00  E= 2.684644D+00

 Vector  131  Occ=0.000000D+00  E= 2.695346D+00

 Vector  132  Occ=0.000000D+00  E= 2.713673D+00

 Vector  133  Occ=0.000000D+00  E= 2.752880D+00

 Vector  134  Occ=0.000000D+00  E= 2.768454D+00

 Vector  135  Occ=0.000000D+00  E= 2.777837D+00

 Vector  136  Occ=0.000000D+00  E= 2.794440D+00

 Vector  137  Occ=0.000000D+00  E= 2.814293D+00

 Vector  138  Occ=0.000000D+00  E= 2.865695D+00

 Vector  139  Occ=0.000000D+00  E= 2.887481D+00

 Vector  140  Occ=0.000000D+00  E= 2.948884D+00

 Vector  141  Occ=0.000000D+00  E= 2.991337D+00

 Vector  142  Occ=0.000000D+00  E= 3.054814D+00

 Vector  143  Occ=0.000000D+00  E= 3.073302D+00

 Vector  144  Occ=0.000000D+00  E= 3.082095D+00

 Vector  145  Occ=0.000000D+00  E= 3.085239D+00

 Vector  146  Occ=0.000000D+00  E= 3.093141D+00

 Vector  147  Occ=0.000000D+00  E= 3.204682D+00

 Vector  148  Occ=0.000000D+00  E= 3.236026D+00

 Vector  149  Occ=0.000000D+00  E= 3.313239D+00

 Vector  150  Occ=0.000000D+00  E= 3.367049D+00

 Vector  151  Occ=0.000000D+00  E= 3.393531D+00

 Vector  152  Occ=0.000000D+00  E= 3.418669D+00

 Vector  153  Occ=0.000000D+00  E= 3.478011D+00

 Vector  154  Occ=0.000000D+00  E= 3.514139D+00

 Vector  155  Occ=0.000000D+00  E= 3.544050D+00

 Vector  156  Occ=0.000000D+00  E= 3.610147D+00

 Vector  157  Occ=0.000000D+00  E= 3.713996D+00

 Vector  158  Occ=0.000000D+00  E= 3.790948D+00

 Vector  159  Occ=0.000000D+00  E= 3.813770D+00

 Vector  160  Occ=0.000000D+00  E= 3.857237D+00

 Vector  161  Occ=0.000000D+00  E= 3.930368D+00

 Vector  162  Occ=0.000000D+00  E= 4.106711D+00

 Vector  163  Occ=0.000000D+00  E= 4.227718D+00

 Vector  164  Occ=0.000000D+00  E= 4.456186D+00

 Vector  165  Occ=0.000000D+00  E= 4.792407D+00

 Vector  166  Occ=0.000000D+00  E= 4.808921D+00

 Vector  167  Occ=0.000000D+00  E= 5.075512D+00

 Vector  168  Occ=0.000000D+00  E= 5.241720D+00

 Vector  169  Occ=0.000000D+00  E= 8.450364D+00

 Vector  170  Occ=0.000000D+00  E= 8.459117D+00

 Vector  171  Occ=0.000000D+00  E= 8.513987D+00

 Vector  172  Occ=0.000000D+00  E= 8.531433D+00

 Vector  173  Occ=0.000000D+00  E= 8.677381D+00

 Vector  174  Occ=0.000000D+00  E= 1.101611D+01

 Vector  175  Occ=0.000000D+00  E= 1.132975D+01

 Vector  176  Occ=0.000000D+00  E= 1.136041D+01

 Vector  177  Occ=0.000000D+00  E= 1.306512D+01

 Vector  178  Occ=0.000000D+00  E= 2.397101D+01

 Vector  179  Occ=0.000000D+00  E= 2.416387D+01

 Vector  180  Occ=0.000000D+00  E= 2.439375D+01

 Vector  181  Occ=0.000000D+00  E= 2.480088D+01

 Vector  182  Occ=0.000000D+00  E= 2.481700D+01

 Vector  183  Occ=0.000000D+00  E= 2.482566D+01

 Vector  184  Occ=0.000000D+00  E= 2.482671D+01

 Vector  185  Occ=0.000000D+00  E= 2.485337D+01

 Vector  186  Occ=0.000000D+00  E= 2.488479D+01

 Vector  187  Occ=0.000000D+00  E= 2.489482D+01

 Vector  188  Occ=0.000000D+00  E= 3.571963D+01

 Vector  189  Occ=0.000000D+00  E= 3.582571D+01

 Vector  190  Occ=0.000000D+00  E= 3.585818D+01

 Vector  191  Occ=0.000000D+00  E= 3.586338D+01

 Vector  192  Occ=0.000000D+00  E= 3.589780D+01

 Vector  193  Occ=0.000000D+00  E= 3.590072D+01

 Vector  194  Occ=0.000000D+00  E= 3.598274D+01

 Vector  195  Occ=0.000000D+00  E= 5.077295D+01

 Vector  196  Occ=0.000000D+00  E= 5.105751D+01

 Vector  197  Occ=0.000000D+00  E= 5.107677D+01

 Vector  198  Occ=0.000000D+00  E= 7.338638D+01

     Multipole analysis of the density
     ---------------------------------

     L   x y z        total         alpha         beta         nuclear
     -   - - -        -----         -----         ----         -------
     0   0 0 0     -0.000000    -26.000000    -26.000000     52.000000

     1   1 0 0     -0.589368      8.787027      8.787027    -18.163423
     1   0 1 0     -0.410503    -60.503318    -60.503318    120.596133
     1   0 0 1     -0.002532     -0.004649     -0.004649      0.006765

     2   2 0 0    -21.181810   -168.037000   -168.037000    314.892190
     2   1 1 0     -0.780034     25.117213     25.117213    -51.014461
     2   1 0 1      0.012877      0.027444      0.027444     -0.042012
     2   0 2 0    -33.867789   -247.939564   -247.939564    462.011339
     2   0 1 1     -0.007211     -0.016801     -0.016801      0.026391

 Total times  cpu:        7.6s     wall:       24.4s
